<?xml version="1.0"?>
<VTKFile type="UnstructuredGrid"  version="0.1"  >
<UnstructuredGrid>
<Piece  NumberOfPoints="2074" NumberOfCells="3919">
<Points>
<DataArray  type="Float64"  NumberOfComponents="3"  format="ascii">-0.5 -1 0  -0.7 -1 0  -0.5089923677442286 -1.004354342509636 0  -0.5180811755024324 -1.008503812132519 0  -0.5272462922973363 -1.012482042449896 0  -0.5364704767020418 -1.016321444756333 0  -0.5457387357040145 -1.020053283738279 0  -0.5550377585346031 -1.023707851612714 0  -0.5643554085607214 -1.027314700762381 0  -0.5736802581272897 -1.030902910232117 0  -0.5830011535087223 -1.034501371079766 0  -0.5923067904374911 -1.038139077924907 0  -0.601585284068835 -1.041845417231541 0  -0.6108237144275332 -1.045650440751124 0  -0.6200076328097305 -1.04958511027561 0  -0.6291205109631325 -1.053681490682978 0  -0.6381431275488142 -1.057972861192785 0  -0.6470528847460073 -1.062493695729207 0  -0.6558230633625742 -1.067279443200353 0  -0.6644220843982126 -1.072366035270641 0  -0.6728128326339904 -1.077789005612583 0  -0.6809521932683047 -1.083582118293926 0  -0.688791040951389 -1.08977545098328 0  -0.6962749449387113 -1.096392951148402 0  -0.7033104445205093 -1.103483256818748 0  -0.7096710300549647 -1.11118444957709 0  -0.7154192319154595 -1.119354352458354 0  -0.7206577878474844 -1.127860879109326 0  -0.7254744430885407 -1.136613705081566 0  -0.7299421893869731 -1.145549971550724 0  -0.734121616831516 -1.154624857510353 0  -0.7380635667870621 -1.163805519179498 0  -0.7418115083384734 -1.173067163821063 0  -0.7454035399955877 -1.18239044384813 0  -0.7488740825119194 -1.19175966773059 0  -0.7522553719695745 -1.201161499520194 0  -0.7555788822419321 -1.210583929377275 0  -0.7588768277180644 -1.220015345986618 0  -0.7621839470559997 -1.229443546029908 0  -0.7655398750207512 -1.238854462294507 0  -0.7689926306600089 -1.248230232191344 0  -0.7726042319659171 -1.257545849416421 0  -0.7764605199696661 -1.266762591366726 0  -0.7806899337267704 -1.275813490424339 0  -0.785502806099444 -1.284565985272082 0  -0.79127953332516 -1.292706094940033 0  -0.7987252422769676 -1.299301379296622 0  -0.808138293140279 -1.302433325381018 0  -0.8180602958564509 -1.301798502444785 0  -0.8274309928238921 -1.298394961424465 0  -0.8360195121579374 -1.293307942625025 0  -0.843904517051985 -1.287179121095726 0  -0.8511990697882358 -1.28035523894732 0  -0.8579935368754609 -1.273031992991477 0  -0.8643522852932115 -1.265326751562684 0  -0.8703186707599903 -1.257313514360201 0  -0.8759195082279809 -1.249040472403876 0  -0.8811677855520731 -1.24053932287159 0  -0.8860636341822216 -1.231830431095117 0  -0.8905935161211062 -1.222925753368962 0  -0.8947271342166431 -1.213830495911356 0  -0.8984106820603562 -1.204544126056819 0  -0.9015459676679627 -1.195059316049327 0  -0.9040857203458503 -1.18539739375851 0  -0.9061564385915593 -1.175623697517439 0  -0.9078503427910944 -1.165777443674729 0  -0.9092282344372756 -1.155881878369899 0  -0.9103317172624414 -1.145951884586745 0  -0.9111898296084728 -1.135997633293058 0  -0.9118228567614355 -1.126026504846503 0  -0.9122446037265753 -1.11604418801092 0  -0.9124637619746158 -1.106055358536684 0  -0.91248469611362 -1.096064143106572 0  -0.9123078177623237 -1.086074474111635 0  -0.9119296200784324 -1.076090409516616 0  -0.9113423795347099 -1.066116474602614 0  -0.9105334670145284 -1.056158096318888 0  -0.9094841244994391 -1.04622222274439 0  -0.9081674235926053 -1.036318307955635 0  -0.9065448575587367 -1.026460010498395 0  -0.9045604680570917 -1.016668353604967 0  -0.9021301713771187 -1.006978177571549 0  -0.8991221310845409 -0.9974524531410771 0  -0.8954459373879226 -0.988164048293112 0  -0.8911751373902078 -0.9791331590003515 0  -0.8863815031303471 -0.9703682983508073 0  -0.8811177771204064 -0.9618772426470942 0  -0.8754215274115206 -0.953669974615073 0  -0.869317779179365 -0.9457610426648562 0  -0.8628206265697974 -0.9381720270308805 0  -0.8559339794962617 -0.9309347676062224 0  -0.8486515472976013 -0.9240962414327746 0  -0.8409561725087069 -0.9177266105096615 0  -0.8328189401899776 -0.9119334307922251 0  -0.8241997570047555 -0.9068882060921821 0  -0.8150565603224881 -0.9028784193217505 0  -0.8053919026830062 -0.9004078607164949 0  -0.7954445072794767 -0.9004055964859224 0  -0.7860256086844175 -0.9036327752907638 0  -0.7775711525885711 -0.9089327735863514 0  -0.7699311707977846 -0.9153640632375024 0  -0.7628815296561465 -0.9224415050858857 0  -0.7562468792777431 -0.9299108959161678 0  -0.749899083003618 -0.9376261970639023 0  -0.743741507366838 -0.9454944457208094 0  -0.7376966764005115 -0.9534497757683545 0  -0.7316976408847213 -0.9614397448962314 0  -0.7256815372518004 -0.9694168527813782 0  -0.7195839923949686 -0.9773317902856058 0  -0.7133332170280599 -0.9851260670429097 0  -0.706842554825826 -0.9927212768312426 0  -0.6930426910824856 -0.9928674898286997 0  -0.6862441603069929 -0.9855833783916963 0  -0.6795800359818401 -0.9781760289876543 0  -0.6730287251109716 -0.9706686684453414 0  -0.6665709024592789 -0.9630807072694193 0  -0.6601890590955251 -0.9554287077638679 0  -0.6538671213370192 -0.9477271235991841 0  -0.6475901143185676 -0.9399888652009688 0  -0.6413438653601897 -0.9322257492905586 0  -0.6351147442297864 -0.9244488798457857 0  -0.6288894169150724 -0.9166689722033048 0  -0.6226546152852263 -0.9088966574336594 0  -0.6163969070773506 -0.9011427785415501 0  -0.6101024614126431 -0.8934187026439456 0  -0.603756796360809 -0.8857366643710839 0  -0.5973445044259386 -0.8781101719680082 0  -0.5908489421986918 -0.8705545034699337 0  -0.5842518757877936 -0.8630873386896999 0  -0.5775330669044596 -0.8557295816993051 0  -0.5706698019699672 -0.8485064710197218 0  -0.5636363533841358 -0.8414490884083123 0  -0.5564034269540004 -0.8345964776109536 0  -0.5489376537839414 -0.8279986089170654 0  -0.5412013585351927 -0.8217205771038135 0  -0.5331531319691418 -0.8158485165520486 0  -0.524750249165462 -0.8104975976738615 0  -0.5159550260518245 -0.8058218237414833 0  -0.5067488076841195 -0.8020230365110386 0  -0.4971587766064035 -0.7993440779835602 0  -0.487313654709612 -0.7978442775971401 0  -0.4773640004746887 -0.7973900187192444 0  -0.4674133286024844 -0.7978444346512954 0  -0.4575285101916503 -0.7990804582051573 0  -0.4477505771482776 -0.8009883642383835 0  -0.4381036703541816 -0.8034769162830238 0  -0.4286014376386478 -0.8064716886878079 0  -0.4192512733610371 -0.809912534250062 0  -0.4100570696033589 -0.8137510742716458 0  -0.4010209725236798 -0.8179485443930995 0  -0.3921445430874803 -0.8224740576298466 0  -0.3834295527013693 -0.8273032643538956 0  -0.3748785838388513 -0.8324173544326302 0  -0.3664955530505649 -0.8378023492833276 0  -0.3582862411843584 -0.8434486506433475 0  -0.3502589289972141 -0.8493508211949766 0  -0.3424252311078758 -0.8555076098394545 0  -0.3348012954659728 -0.8619222460458194 0  -0.3274096173543797 -0.8686030799718114 0  -0.3202819340802515 -0.8755646955257227 0  -0.3134640888346594 -0.8828297224925394 0  -0.3070247063115982 -0.8904317253897386 0  -0.3010719520491296 -0.8984195774399384 0  -0.2958000917994482 -0.9068703076346503 0  -0.2912939920144149 -0.9157541142479385 0  -0.2874688842282933 -0.924952484613943 0  -0.284250440324314 -0.9343807713556948 0  -0.2815783561971157 -0.9439785476163979 0  -0.2794049425581824 -0.9537016085731971 0  -0.2776932989278752 -0.9635166396239387 0  -0.2764156554580022 -0.9733976394882736 0  -0.2755520525484555 -0.9833234639079654 0  -0.275089376984626 -0.9932760756620614 0  -0.2750207297542781 -1.003239213552726 0  -0.2753450947534521 -1.013197299843528 0  -0.2760672902274977 -1.023134429911497 0  -0.2771981996430284 -1.033033322881107 0  -0.2787552957493987 -1.042874094118003 0  -0.2807634850816898 -1.052632679030933 0  -0.283256301193878 -1.062278657816401 0  -0.286277454208785 -1.071772136576793 0  -0.2898826334371431 -1.081059111978156 0  -0.2941411760494564 -1.090064531907809 0  -0.2991364573365235 -1.098681986016823 0  -0.3049992303040113 -1.106731818726704 0  -0.3116153777934633 -1.114178626281872 0  -0.3187305840237827 -1.121151883663931 0  -0.3262029234374965 -1.127741863120803 0  -0.333947138873033 -1.134010565209521 0  -0.3419084930060562 -1.140001360717504 0  -0.3500500959591527 -1.145744972640214 0  -0.3583462266819095 -1.151263144786335 0  -0.3667785728849275 -1.156570905969748 0  -0.375334000366126 -1.161677952187523 0  -0.3840031854804261 -1.166589442415037 0  -0.3927797606957288 -1.171306357799921 0  -0.4016597893095006 -1.175825486502964 0  -0.4106414661801439 -1.180139019875058 0  -0.4197249883146341 -1.184233662950006 0  -0.4289125621424773 -1.188089036943189 0  -0.4382085321000456 -1.191674929749665 0  -0.4476195714508312 -1.194946475624811 0  -0.4571547585317099 -1.197835283210257 0  -0.4668248113469171 -1.200231797110046 0  -0.4766372893945124 -1.201946228792965 0  -0.4865716659780331 -1.202608553662189 0  -0.4964280524363683 -1.201367788545457 0  -0.5049082151886261 -1.196370996144181 0  -0.5101722916033 -1.187980350467716 0  -0.5129574712690776 -1.178429941086324 0  -0.5143083654652735 -1.168562984680504 0  -0.5147905202384523 -1.158612624481019 0  -0.5147050404574516 -1.148649874209162 0  -0.5142276309867196 -1.138697751044144 0  -0.5134702996817517 -1.128762791852831 0  -0.5125100226965236 -1.118845280062883 0  -0.5114032822288318 -1.10894298147547 0  -0.5101940983608567 -1.099052635112495 0  -0.5089188469534836 -1.089170571165408 0  -0.5076094151220457 -1.079292969224035 0  -0.5062954981054906 -1.069415961819534 0  -0.5050065099565182 -1.059535676583316 0  -0.5037734463826927 -1.049648271760928 0  -0.5026310219198942 -1.039750013948192 0  -0.5016204970664995 -1.029837473421523 0  -0.5007938678403017 -1.019907997978817 0  -0.5002206719501909 -1.009960849090506 0  -0.2906244580519996 -0.9417718159109421 0  -0.2842263591367142 -1.009226319159864 0  -0.2971371958391816 -1.073181530905887 0  -0.3357156575191636 -0.8719924414638293 0  -0.4919936735799518 -1.015408105374677 0  -0.719559868371437 -1.110129393724059 0  -0.89
[...]
<PointData  Scalars="f_8"> 
<DataArray  type="Float64"  Name="f_8"  format="ascii">0.0000000000000000e+00  0.0000000000000000e+00  0.0000000000000000e+00  0.0000000000000000e+00  0.0000000000000000e+00  0.0000000000000000e+00  0.0000000000000000e+00  0.0000000000000000e+00  0.0000000000000000e+00  0.0000000000000000e+00  0.0000000000000000e+00  0.0000000000000000e+00  0.0000000000000000e+00  0.0000000000000000e+00  0.0000000000000000e+00  0.0000000000000000e+00  0.0000000000000000e+00  0.0000000000000000e+00  0.0000000000000000e+00  0.0000000000000000e+00  0.0000000000000000e+00  0.0000000000000000e+00  0.0000000000000000e+00  0.0000000000000000e+00  0.0000000000000000e+00  0.0000000000000000e+00  0.0000000000000000e+00  0.0000000000000000e+00  0.0000000000000000e+00  0.0000000000000000e+00  0.0000000000000000e+00  0.0000000000000000e+00  0.0000000000000000e+00  0.0000000000000000e+00  0.0000000000000000e+00  0.0000000000000000e+00  0.0000000000000000e+00  0.0000000000000000e+00  0.0000000000000000e+00  0.0000000000000000e+00  0.0000000000000000e+00  0.0000000000000000e+00  0.0000000000000000e+00  0.0000000000000000e+00  0.0000000000000000e+00  0.0000000000000000e+00  0.0000000000000000e+00  0.0000000000000000e+00  0.0000000000000000e+00  0.0000000000000000e+00  0.0000000000000000e+00  0.0000000000000000e+00  0.0000000000000000e+00  0.0000000000000000e+00  0.0000000000000000e+00  0.0000000000000000e+00  0.0000000000000000e+00  0.0000000000000000e+00  0.0000000000000000e+00  0.0000000000000000e+00  0.0000000000000000e+00  0.0000000000000000e+00  0.0000000000000000e+00  0.0000000000000000e+00  0.0000000000000000e+00  0.0000000000000000e+00  0.0000000000000000e+00  0.0000000000000000e+00  0.0000000000000000e+00  0.0000000000000000e+00  0.0000000000000000e+00  0.0000000000000000e+00  0.0000000000000000e+00  0.0000000000000000e+00  0.0000000000000000e+00  0.0000000000000000e+00  0.0000000000000000e+00  0.0000000000000000e+00  0.0000000000000000e+00  0.0000000000000000e+00  0.0000000000000000e+00  0.0000000000000000e+00  0.0000000000000000e+00  0.0000000000000000e+00  0.0000000000000000e+00  0.0000000000000000e+00  0.0000000000000000e+00  0.0000000000000000e+00  0.0000000000000000e+00  0.0000000000000000e+00  0.0000000000000000e+00  0.0000000000000000e+00  0.0000000000000000e+00  0.0000000000000000e+00  0.0000000000000000e+00  0.0000000000000000e+00  0.0000000000000000e+00  0.0000000000000000e+00  0.0000000000000000e+00  0.0000000000000000e+00  0.0000000000000000e+00  0.0000000000000000e+00  0.0000000000000000e+00  0.0000000000000000e+00  0.0000000000000000e+00  0.0000000000000000e+00  0.0000000000000000e+00  0.0000000000000000e+00  0.0000000000000000e+00  0.0000000000000000e+00  0.0000000000000000e+00  0.0000000000000000e+00  0.0000000000000000e+00  0.0000000000000000e+00  0.0000000000000000e+00  0.0000000000000000e+00  0.0000000000000000e+00  0.0000000000000000e+00  0.0000000000000000e+00  0.0000000000000000e+00  0.0000000000000000e+00  0.0000000000000000e+00  0.0000000000000000e+00  0.0000000000000000e+00  0.0000000000000000e+00  0.0000000000000000e+00  0.0000000000000000e+00  0.0000000000000000e+00  0.0000000000000000e+00  0.0000000000000000e+00  0.0000000000000000e+00  0.0000000000000000e+00  0.0000000000000000e+00  0.0000000000000000e+00  0.0000000000000000e+00  0.0000000000000000e+00  0.0000000000000000e+00  0.0000000000000000e+00  0.0000000000000000e+00  0.0000000000000000e+00  0.0000000000000000e+00  0.0000000000000000e+00  0.0000000000000000e+00  0.0000000000000000e+00  0.0000000000000000e+00  0.0000000000000000e+00  0.0000000000000000e+00  0.0000000000000000e+00  0.0000000000000000e+00  0.0000000000000000e+00  0.0000000000000000e+00  0.0000000000000000e+00  0.0000000000000000e+00  0.0000000000000000e+00  0.0000000000000000e+00  0.0000000000000000e+00  0.0000000000000000e+00  0.0000000000000000e+00  0.0000000000000000e+00  0.0000000000000000e+00  0.0000000000000000e+00  0.0000000000000000e+00  0.0000000000000000e+00  0.0000000000000000e+00  0.0000000000000000e+00  0.0000000000000000e+00  0.0000000000000000e+00  0.0000000000000000e+00  0.0000000000000000e+00  0.0000000000000000e+00  0.0000000000000000e+00  0.0000000000000000e+00  0.0000000000000000e+00  0.0000000000000000e+00  0.0000000000000000e+00  0.0000000000000000e+00  0.0000000000000000e+00  0.0000000000000000e+00  0.0000000000000000e+00  0.0000000000000000e+00  0.0000000000000000e+00  0.0000000000000000e+00  0.0000000000000000e+00  0.0000000000000000e+00  0.0000000000000000e+00  0.0000000000000000e+00  0.0000000000000000e+00  0.0000000000000000e+00  0.0000000000000000e+00  0.0000000000000000e+00  0.0000000000000000e+00  0.0000000000000000e+00  0.0000000000000000e+00  0.0000000000000000e+00  0.0000000000000000e+00  0.0000000000000000e+00  0.0000000000000000e+00  0.0000000000000000e+00  0.0000000000000000e+00  0.0000000000000000e+00  0.0000000000000000e+00  0.0000000000000000e+00  0.0000000000000000e+00  0.0000000000000000e+00  0.0000000000000000e+00  0.0000000000000000e+00  0.0000000000000000e+00  0.0000000000000000e+00  0.0000000000000000e+00  0.0000000000000000e+00  0.0000000000000000e+00  0.0000000000000000e+00  0.0000000000000000e+00  0.0000000000000000e+00  0.0000000000000000e+00  0.0000000000000000e+00  0.0000000000000000e+00  0.0000000000000000e+00  0.0000000000000000e+00  0.0000000000000000e+00  0.0000000000000000e+00  0.0000000000000000e+00  0.0000000000000000e+00  0.0000000000000000e+00  0.0000000000000000e+00  0.0000000000000000e+00  0.0000000000000000e+00  6.5052479364177901e-04  7.3799373733865632e-04  7.1565396974987579e-04  6.7990467667783838e-04  1.0860712677073529e-03  7.7253933635174847e-04  6.2934959235970466e-04  7.3106162703195931e-04  6.9127202234347282e-04  5.9102516836329218e-04  7.3029010897553072e-04  5.5685990771278248e-04  6.7471202644353340e-04  7.4347484301816433e-04  7.7136416026468062e-04  5.2573046461295864e-04  6.6798196290864182e-04  6.5715418285604982e-04  6.4364134825606388e-04  6.4547312089656189e-04  6.5607900941058641e-04  6.0641922822708759e-04  1.1712337186649267e-03  1.8804763938942560e-03  7.0325426269982104e-04  2.2645054529962577e-03  2.8882322859118087e-03  5.1139781228295056e-04  5.9261324567802857e-04  3.0607336254090309e-03  3.5675144069867259e-03  3.5513987242805356e-03  4.0677715784347450e-03  4.1343023467118531e-03  4.5122957757545625e-03  4.6142342089906365e-03  4.8818696799460331e-03  4.9933833013883384e-03  5.1714331527519261e-03  5.2782354638841395e-03  5.0659841285860272e-03  5.3812033771730742e-03  5.4751124868171967e-03  5.3827160278164818e-03  5.5570751096467221e-03  5.4779201810445039e-03  5.6217453703525646e-03  5.5556664952892401e-03  5.6631425233652248e-03  5.6080586270181336e-03  5.6753869704476720e-03  5.6282049974251307e-03  5.6466514634703315e-03  5.8250182234576920e-04  5.6532091497659203e-03  5.6104792804842459e-03  3.6376636541548251e-03  5.7757508199556007e-04  5.1120791546684162e-04  4.6843936458088042e-04  6.2301743032959326e-04  6.7202189005855189e-04  5.5921734066085539e-03  5.5504539060620955e-03  5.6012927307326193e-03  5.5385131407536059e-03  5.4792364370073159e-03  5.4409439986616917e-03  5.3812121209773182e-03  5.3207766058013979e-03  5.2584716375760881e-03  5.1801657627430584e-03  5.1123918743812957e-03  5.0203211734208856e-03  5.2682720147048494e-03  5.2103086637955113e-04  6.4106250969337732e-04  5.5000019790596008e-03  5.4761783779012059e-03  4.0584750036838825e-04  4.9435977120246832e-03  4.8415410944472187e-03  5.0145155262763461e-04  5.1768226093452724e-04  5.3369861434045401e-03  6.5863049868432908e-04  5.2808886552870651e-03  4.7520134182546586e-03  4.6433405057044958e-03  4.8025938897353253e-03  4.8826346061551476e-04  5.1056997253238002e-03  4.2537430517251124e-04  4.6341412414752862e-04  4.5369669872774854e-03  4.4246307892634937e-03  6.3730950157614278e-04  5.0180475858337854e-03  3.2404592140429875e-03  3.7069343075817390e-03  3.3798884664299179e-03  3.7442753713532073e-03  3.4616160382918487e-03  3.7330719427474657e-03  3.4779185775379003e-03  3.6637483067705526e-03  3.9061142069937052e-03  4.8151345941369462e-04  4.7088169736416216e-04  5.1849498274710876e-03  4.2973164701499908e-03  4.1838986976614981e-03  8.0691538059936329e-04  4.8084024514685611e-03  4.8865075477250363e-03  4.8627993081369510e-03  4.2596103835612891e-03  4.0219452705033592e-03  5.2643900852921235e-04  4.8892832796216317e-03  5.0470314763589093e-03  3.4244213076167697e-03  6.4369910109742000e-04  6.6699610719552372e-04  5.3273148304030767e-03  3.7617526105269356e-03  3.9881928570033951e-03  6.7869465492765657e-04  4.0437845244446725e-03  3.8134684448139955e-03  3.7191560630588338e-04  6.3729848838828902e-04  4.7172343384741158e-03  4.8645232605809509e-03  4.0315908723463209e-03  4.0974228405238709e-03  5.8973512269502003e-04  5.0609658527002649e-04  4.4996294676601630e-03  4.6352197884496184e-03  5.9219111535543044e-04  5.3589445153636849e-03  3.7773009703726428e-03  3.9865059347301505e-03  3.6786628237555675e-04  3.8045013685255565e-03  3.8265559106326862e-03  4.5540070147567432e-03  4.6213367820830782e-03  3.7794272713583721e-03  3.5607503978098750e-03  3.5633628479360543e-03  3.3238325994962526e-03  3.2911106809549837e-03  3.0661643175851926e-03  4.3245374893745719e-03  3.7045700845951237e-04  3.2355879349879276e-03  3.1920563234651457e-03  3.0080405204727240e-03  2.9685831682756364e-03  2.7950607992785286e-03  2.7545871772270310e-03  3.0686764563358638e-03  3.0375180113071390e-04  3.7160176286810368e-03  3.9077909009975625e-03  4.1776383235264964e-03  4.0760643728784650e-03  4.3441605436813210e-03  4.2152358765336073e-03  4.4797255523463964e-03  4.3195874458036307e-03  4.5779231336092688e-03  4.3837235671654422e-03  4.6331693162512764e-03  4.4028122663329287e-03  4.6408492531107137e-03  4.3726821568219965e-03  4.5969627820610674e-03  4.2897993146479071e-03  4.4982474608731395e-03  4.1261677786515495e-03  3.9046717491732761e-03  4.1512498607282110e-03  4.3423154243136418e-03  4.6731694514409432e-03  4.5003065818355528e-03  3.9252735950984028e-03  4.8165027655862596e-03  4.6266132174354376e-03  4.2670661513868049e-03  4.3751713387902673e-03  4.7221219898880770e-03  4.4520861743818510e-03  2.5954882931609837e-03  2.5498176588600470e-03  4.2342855006244481e-03  2.4079916653017615e-03  4.2530353163910033e-03  4.3085533371244496e-03  3.5043624550157881e-03  3.4863363165345499e-03  2.9944812273276448e-03  2.7854266532707124e-03  2.8068298979248151e-03  2.5452911791716752e-03  3.4691815025977533e-03  3.6578741243082306e-03  2.3541250838476396e-03  2.2316181458540336e-03  4.3570370668215173e-03  4.7334273804455250e-03  3.9725078164912645e-03  3.7481908304739901e-03  3.5058868127248238e-03  3.9039512413276507e-03  3.9468655099436645e-03  3.8227796579895397e-03  4.3264664406213252e-03  3.9524478751076144e-03  4.3077635721488596e-03  3.9213315078730406e-03  4.2531101681296613e-03  3.8538357004082435e-03  4.1628352026985994e-03  3.7499511899113675e-03  4.0368890732755888e-03  3.6092519304158953e-03  3.8748235731135088e-03  3.4309082290070510e-03  3.4167604502979100e-04  2.1674270477588398e-03  2.0657444947889789e-03  4.2658461524489877e-03  3.5063807351991415e-03  3.3858856402238162e-03  2.5153431908693821e-03  2.2761333152496979e-03  3.9190992832529199e-03  4.0278763835675776e-03  8.0503993344607577e-04  1.0345293315245346e-03  1.4852707947356227e-03  1.6072061061317433e-03  1.9632480891466487e-03  1.9694314849774438e-03  2.2898506309807633e-03  2.3382695483999591e-03  2.6234054395171094e-03  2.7006774326545041e-03  2.9480172525423159e-03  3.0351093677814167e-03  3.2493918070972188e-03  3.3323555762722994e-03  3.5176087892953597e-03  3.5860101660407312e-03  3.7452824546038025e-03  3.7911703411805018e-03  3.9266433153018867e-03  3.9439123035848360e-03  4.0570388433942379e-03  4.0409765754660107e-03  4.1326531875220326e-03  3.9102012946710786e-03  4.1304057382772555e-03  4.1879237331883196e-03  4.1676054873747989e-03  4.2097644714935538e-03  4.1723200573939995e-03  4.2012557548080894e-03  3.9728082343816690e-03  3.8279363802173950e-03  4.1871544523115825e-03  4.1482230280264635e-03  4.1654304624174111e-03  4.0988087081476037e-03  4.1051570115785505e-03  4.0272083827954403e-03  4.0230118523339109e-03  3.9361547660306849e-03  3.9212327592473301e-03  3.8279235305427616e-03  3.8016470596014939e-03  3.7042737520703510e-03  3.9518786840574026e-03  3.6656581495412431e-03  3.5664677623325610e-03  3.8546151137004042e-03  3.6985757126216782e-03  3.5142462856344479e-03  3.4153005481161384e-03  3.3479728090279556e-03  3.2511220804789013e-03  3.6877087911093599e-03  3.5227826830856682e-03  4.0858771327338334e-03  3.6436624165554106e-03  3.9667045555636235e-03  3.1669985055883310e-03  3.0738727639094995e-03  3.3867449290395854e-03  3.3971554035288577e-03  3.4727582082742172e-03  3.6107171723927319e-03  3.3005800768824787e-03  3.5438740808188735e-03  2.9710999439746567e-03  2.8831210270080514e-03  2.9248405800390486e-03  2.7413892644543841e-03  2.6781078809944413e-03  2.5450419986575716e-03  3.0840426155026406e-03  3.3552191858021623e-03  3.4671868823692438e-03  1.6964229450733849e-03  2.4577997385981914e-03  2.3346303305987440e-03  2.7206113817937810e-03  3.1702101945444861e-03  3.2566323072904788e-03  2.5005485714579513e-03  3.2858378249575530e-03  3.4457135160881548e-03  7.8281081325265228e-04  3.1703226169447181e-03  2.2209378479901517e-03  2.1087944529973122e-03  2.1637728632410420e-03  1.9516249437056918e-03  2.2864796970826101e-03  1.9927309656013440e-03  1.9104619593020523e-03  2.4126298883362183e-03  4.8802487951917953e-04  2.2596168207737930e-03  2.0136821145895958e-03  4.5685758491604105e-03  4.8467223854268340e-03  3.1328859720925234e-03  3.1469483003315315e-03  3.0784569931458202e-03  3.5055387785005760e-03  7.2990121270843889e-04  2.5297407919103317e-04  9.1551366922570140e-04  2.9176536481642953e-03  2.9784610166920136e-03  3.3105519415038598e-03  3.0070625306047511e-03  3.3328191968826268e-03  3.0045311446903556e-03  3.3246350893678515e-03  2.8240000337254744e-03  2.9722083844408052e-03  3.2874080888687499e-03  3.4838957205661348e-03  2.7459401794687394e-03  3.2910465962395956e-03  3.0339216586056646e-03  3.2257781214106180e-03  3.2829315156435033e-04  1.8292600880334907e-03  1.7661742801163044e-03  1.9467005992575598e-03  1.7509297632150769e-03  1.7237472738168154e-03  1.5405262916244123e-03  2.9115906547599341e-03  3.2226739368050755e-03  2.8242272003416707e-03  3.1319735083726583e-03  2.7116265352748652e-03  3.0167945446732663e-03  5.9472313802356070e-04  4.7872160238337166e-03  3.6757498522864114e-03  3.2136366807474928e-03  2.0114207882136305e-03  5.5131283621121293e-03  5.4213790851453591e-03  3.7728106762260193e-03  3.2849818643819000e-03  4.4417126891658542e-03  2.6713937159822372e-03  2.8334505473859815e-03  3.0044905678127207e-03  5.5745218051406614e-03  4.9262558404893613e-03  3.7039860471933406e-03  3.7841718717012002e-03  3.2565348426705108e-03  3.3223182025294870e-03  3.0946066616511737e-03  3.0869207325225391e-03  2.8558967722296692e-03  2.8179033058205526e-03  2.5861532779693592e-03  2.5793204194257818e-03  2.5173101092357724e-03  2.7045978716239401e-03  2.2877334499319243e-03  2.3699112706567662e-03  2.5133450627931237e-03  5.1655469645900762e-03  1.9158619635213387e-03  1.6858078209696043e-03  5.0131422356180051e-03  5.0673631267246924e-03  4.1694495255958407e-03  3.0074426294186027e-03  3.1258570327290722e-03  2.8699182484026083e-03  3.5976286145506732e-03  7.3390988248437229e-04  3.4216255881104741e-03  2.0221321769775505e-03  3.2537174254604136e-03  3.7492098369570682e-03  3.4030713846908431e-03  3.9078039740850718e-03  3.5545388356777005e-03  4.0723864059245404e-03  3.2529538116979821e-03  2.8915689570081483e-03  3.7236825588800484e-03  4.2503036525411170e-03  3.9194281645234461e-03  2.2001656858944034e-03  2.7405437372966558e-03  2.7526205688907326e-03  2.9909273393072511e-03  7.1672121174807841e-04  6.0261157776289229e-04  5.9106087465262661e-04  1.7689545087652711e-03  1.6498791943800046e-03  1.6357413264060409e-03  1.5458066429987689e-03  1.5215380612281497e-03  1.4598818044915722e-03  2.4666205343879359e-03  2.5751978620177402e-03  2.8785016883303592e-03  6.7305712865553795e-04  2.6063149630700293e-03  6.1198920819690878e-04  6.6658368871767078e-04  2.1939812554221255e-03  2.7647677678603361e-03  2.5972362235577862e-03  2.0324820709063233e-03  1.9478597177033656e-03  1.7261757918895790e-03  1.7434323763520956e-03  1.4829764443883026e-03  6.0751447844356740e-04  2.7388091926892431e-03  2.9055573905061665e-03  2.9340242186533514e-03  6.1607856928297291e-04  5.0211383552596558e-04  1.4247274683842719e-03  1.3961149784892041e-03  2.8666211859576262e-03  3.0173357555665177e-03  2.6981722223079320e-03  5.3416008671882027e-04  4.4979024030045575e-03  4.1194678463375789e-03  7.0333119084464376e-04  2.9556570212581380e-03  3.8026040758721616e-03  4.2644634445171978e-03  4.6007888733538690e-03  4.4436105966507147e-03  4.0393612803283404e-03  3.4807711647658920e-03  3.7146331058164352e-03  3.5932889378899411e-03  2.5114797842805060e-03  5.4973830649685657e-04  7.4969462013311995e-04  6.3357794591440331e-04  5.7620593909073279e-04  7.1973015303813080e-04  1.7720974242526957e-03  6.4362011460406389e-04  1.6849502500783440e-03  1.8497508976297562e-03  1.4785740258480811e-03  1.3137888803323894e-03  4.1456816258301195e-03  5.2482660512170555e-03  5.2930952169578634e-03  3.2677031042063014e-03  3.1270817076999510e-03  2.7183315833691070e-03  2.9653552994538149e-03  2.5374346757955682e-03  2.7834198131529843e-03  1.5607837908730362e-03  1.5170828810438654e-03  6.3069420672775926e-04  1.4504013928794501e-03  1.2200166232713685e-03  2.3632131001336816e-03  1.5381489563461742e-03  2.1405953108432916e-03  2.0060889697325851e-03  2.2428772603380206e-03  2.6219514198242287e-03  2.3136638942113101e-03  2.6985416573775006e-03  2.3557230058763594e-03  2.5268325404553876e-03  2.7497377556271623e-03  1.3181069244775087e-03  1.1123908939464284e-03  4.1456767183040959e-03  3.7244997202075447e-03  3.7310463018811928e-03  3.2674354506843930e-03  3.2481450793514807e-03  2.7511882581407032e-03  2.7458160633172714e-03  2.7167495981444694e-03  3.8516334769575695e-03  5.4447209281556531e-03  2.5850283631129482e-03  3.1223303337798128e-03  1.6050328527921359e-03  3.5145114756618776e-03  3.3810956308167606e-03  3.0016610108635953e-03  2.8562570350580108e-03  4.4471740192901683e-03  2.3874621975926887e-03  5.5217743945108382e-03  2.3039336878393647e-03  1.9956800174580247e-03  2.2718257704162862e-03  4.2567526409086637e-03  3.8548213406235511e-03  3.6077350018817564e-03  4.9456503704861316e-03  3.0314547134117804e-03  4.5093930563452483e-03  2.9412515358708058e-03  2.5245145928141852e-03  2.7022428285624852e-03  1.9622189379286427e-03  2.4467598110706546e-04  7.0220389119893777e-04  2.6770291245648815e-03  3.0437433241407839e-03  2.4035503008918197e-03  2.5425378192861334e-03  3.0142448145749181e-03  2.6234286765471101e-03  3.0679075080001375e-03  2.6494807741311308e-03  3.0700660675798096e-03  2.6245774980165884e-03  3.0245899192402012e-03  2.5528772872039393e-03  2.9356392093496755e-03  2.2731951822779475e-03  2.4563257143325008e-03  1.3523522183013629e-03  6.8458886726006159e-04  6.6437818464007078e-04  2.4459338637705013e-03  2.7914096864039514e-03  6.0020407238791946e-04  2.4386061814821742e-03  2.4642588041192915e-03  1.3904641368732459e-03  2.3364213003093117e-03  2.5818679014802549e-03  2.0107914822149195e-03  2.1593269535978045e-03  1.3635689804161444e-03  1.5640913668502029e-03  1.6727370294083610e-03  5.6837157918825446e-04  2.0137014590907343e-03  2.2061111909208015e-03  2.1784719252872244e-03  2.4191263691600473e-03  2.6547253971811640e-03  1.9099572022227530e-03  2.1885752420516161e-03  1.4047017375617525e-03  1.5241383059299142e-03  1.6591705944544110e-03  1.3241251604955032e-03  1.3111248541010411e-03  1.1970191718605760e-03  2.1760366018776923e-03  2.2508538332792335e-03  2.0688505332844280e-0