<?xml version="1.0"?>
<VTKFile type="UnstructuredGrid"  version="0.1"  >
<UnstructuredGrid>
<Piece  NumberOfPoints="7588" NumberOfCells="14774">
<Points>
<DataArray  type="Float64"  NumberOfComponents="3"  format="ascii">-1 -1 0  1 -1 0  1 -0.0001 0  0 0 0  1 0.0001 0  1 1 0  -1 1 0  -0.9750000000000694 -1 0  -0.9500000000001387 -1 0  -0.9250000000002081 -1 0  -0.9000000000002774 -1 0  -0.8750000000003467 -1 0  -0.8500000000004161 -1 0  -0.8250000000004855 -1 0  -0.8000000000005548 -1 0  -0.7750000000006241 -1 0  -0.7500000000006934 -1 0  -0.7250000000007628 -1 0  -0.7000000000008322 -1 0  -0.6750000000009015 -1 0  -0.6500000000009709 -1 0  -0.6250000000010403 -1 0  -0.6000000000011096 -1 0  -0.5750000000011789 -1 0  -0.5500000000012482 -1 0  -0.5250000000013176 -1 0  -0.500000000001387 -1 0  -0.4750000000014563 -1 0  -0.4500000000015257 -1 0  -0.4250000000015951 -1 0  -0.4000000000016644 -1 0  -0.3750000000017337 -1 0  -0.3500000000018031 -1 0  -0.3250000000018725 -1 0  -0.3000000000019418 -1 0  -0.2750000000020112 -1 0  -0.2500000000020806 -1 0  -0.2250000000021499 -1 0  -0.2000000000022192 -1 0  -0.1750000000022885 -1 0  -0.1500000000023578 -1 0  -0.1250000000024272 -1 0  -0.1000000000024964 -1 0  -0.0750000000025659 -1 0  -0.05000000000263527 -1 0  -0.02500000000270453 -1 0  -2.752242878045763e-12 -1 0  0.02499999999729541 -1 0  0.04999999999736482 -1 0  0.07499999999743401 -1 0  0.09999999999750342 -1 0  0.1249999999975728 -1 0  0.149999999997642 -1 0  0.1749999999977114 -1 0  0.1999999999977808 -1 0  0.22499999999785 -1 0  0.2499999999979194 -1 0  0.2749999999979889 -1 0  0.2999999999980583 -1 0  0.3249999999981275 -1 0  0.3499999999981969 -1 0  0.3749999999982663 -1 0  0.3999999999983355 -1 0  0.4249999999984049 -1 0  0.4499999999984743 -1 0  0.4749999999985435 -1 0  0.4999999999986129 -1 0  0.5249999999986823 -1 0  0.5499999999987515 -1 0  0.5749999999988211 -1 0  0.5999999999988903 -1 0  0.6249999999989597 -1 0  0.6499999999990291 -1 0  0.6749999999990988 -1 0  0.699999999999168 -1 0  0.7249999999992371 -1 0  0.7499999999993066 -1 0  0.7749999999993757 -1 0  0.7999999999994454 -1 0  0.8249999999995148 -1 0  0.849999999999584 -1 0  0.8749999999996532 -1 0  0.8999999999997226 -1 0  0.9249999999997918 -1 0  0.9499999999998614 -1 0  0.9749999999999308 -1 0  1 -0.9750025000000498 0  1 -0.9500050000000955 0  1 -0.9250075000001496 0  1 -0.9000100000001996 0  1 -0.8750125000002494 0  1 -0.8500150000002863 0  1 -0.8250175000003883 0  1 -0.8000200000004425 0  1 -0.7750225000005054 0  1 -0.7500250000006073 0  1 -0.7250275000006356 0  1 -0.7000300000007245 0  1 -0.675032500000822 0  1 -0.6500350000008459 0  1 -0.6250375000009869 0  1 -0.6000400000010584 0  1 -0.5750425000011039 0  1 -0.5500450000012362 0  1 -0.5250475000012513 0  1 -0.5000500000013229 0  1 -0.4750525000012383 0  1 -0.4500550000011885 0  1 -0.4250575000011343 0  1 -0.4000600000010669 0  1 -0.3750625000009651 0  1 -0.3500650000009194 0  1 -0.3250675000008609 0  1 -0.3000700000007893 0  1 -0.2750725000007135 0  1 -0.2500750000006506 0  1 -0.2250775000005878 0  1 -0.2000800000005118 0  1 -0.1750825000004403 0  1 -0.1500850000003816 0  1 -0.1250875000003361 0  1 -0.1000900000002342 0  1 -0.07509250000016698 0  1 -0.05009500000011269 0  1 -0.02509750000006283 0  0.9749999999998959 -9.74999999999896e-05 0  0.9499999999997919 -9.499999999997919e-05 0  0.9249999999996878 -9.249999999996879e-05 0  0.8999999999995838 -8.999999999995839e-05 0  0.8749999999995014 -8.749999999995014e-05 0  0.8499999999996533 -8.499999999996533e-05 0  0.8249999999998268 -8.249999999998268e-05 0  0.8000000000000003 -8.000000000000003e-05 0  0.7750000000001739 -7.750000000001739e-05 0  0.7500000000003474 -7.500000000003474e-05 0  0.725000000000521 -7.25000000000521e-05 0  0.7000000000006945 -7.000000000006945e-05 0  0.675000000000868 -6.75000000000868e-05 0  0.6500000000010415 -6.500000000010415e-05 0  0.6250000000012151 -6.250000000012151e-05 0  0.6000000000013886 -6.000000000013887e-05 0  0.5750000000015622 -5.750000000015621e-05 0  0.5500000000017357 -5.500000000017357e-05 0  0.5250000000019093 -5.250000000019092e-05 0  0.5000000000020611 -5.000000000020612e-05 0  0.4750000000019786 -4.750000000019786e-05 0  0.4500000000018745 -4.500000000018745e-05 0  0.4250000000017704 -4.250000000017704e-05 0  0.4000000000016661 -4.000000000016662e-05 0  0.3750000000015621 -3.750000000015621e-05 0  0.3500000000014579 -3.50000000001458e-05 0  0.3250000000013538 -3.250000000013538e-05 0  0.3000000000012496 -3.000000000012497e-05 0  0.2750000000011456 -2.750000000011455e-05 0  0.2500000000010414 -2.500000000010414e-05 0  0.2250000000009372 -2.250000000009372e-05 0  0.2000000000008331 -2.000000000008331e-05 0  0.1750000000007289 -1.750000000007289e-05 0  0.1500000000006249 -1.500000000006249e-05 0  0.1250000000005207 -1.250000000005207e-05 0  0.1000000000004164 -1.000000000004165e-05 0  0.07500000000031237 -7.500000000031231e-06 0  0.05000000000020821 -5.000000000020816e-06 0  0.02500000000010405 -2.500000000010401e-06 0  0.02499999999995278 2.499999999995278e-06 0  0.04999999999989948 4.999999999989948e-06 0  0.07499999999985256 7.499999999985257e-06 0  0.09999999999981431 9.99999999998143e-06 0  0.1249999999997734 1.249999999997734e-05 0  0.1499999999997031 1.499999999997032e-05 0  0.1749999999996302 1.749999999996302e-05 0  0.1999999999995573 1.999999999995573e-05 0  0.2249999999994844 2.249999999994844e-05 0  0.2499999999994114 2.499999999994115e-05 0  0.2749999999993386 2.749999999993386e-05 0  0.2999999999992656 2.999999999992656e-05 0  0.3249999999991927 3.249999999991927e-05 0  0.3499999999991198 3.499999999991198e-05 0  0.3749999999990469 3.749999999990469e-05 0  0.3999999999989739 3.999999999989739e-05 0  0.4249999999989009 4.249999999989009e-05 0  0.4499999999988278 4.499999999988278e-05 0  0.4749999999987548 4.749999999987548e-05 0  0.4999999999986925 4.999999999986925e-05 0  0.5249999999987476 5.249999999987476e-05 0  0.5499999999988135 5.499999999988136e-05 0  0.5749999999988794 5.749999999988794e-05 0  0.5999999999989454 5.999999999989454e-05 0  0.6249999999990112 6.249999999990112e-05 0  0.6499999999990772 6.499999999990773e-05 0  0.6749999999991432 6.749999999991432e-05 0  0.699999999999209 6.99999999999209e-05 0  0.724999999999275 7.249999999992751e-05 0  0.7499999999993409 7.499999999993409e-05 0  0.7749999999994068 7.749999999994068e-05 0  0.7999999999994727 7.999999999994727e-05 0  0.8249999999995387 8.249999999995387e-05 0  0.8499999999996045 8.499999999996046e-05 0  0.8749999999996703 8.749999999996703e-05 0  0.8999999999997363 8.999999999997363e-05 0  0.9249999999998023 9.249999999998024e-05 0  0.9499999999998682 9.499999999998682e-05 0  0.974999999999934 9.749999999999341e-05 0  1 0.02509749999995245 0  1 0.05009499999989847 0  1 0.07509249999984775 0  1 0.1000899999998125 0  1 0.1250874999997729 0  1 0.1500849999997035 0  1 0.1750824999996286 0  1 0.2000799999995646 0  1 0.2250774999994897 0  1 0.2500749999994148 0  1 0.2750724999993399 0  1 0.3000699999992651 0  1 0.3250674999991902 0  1 0.3500649999991153 0  1 0.3750624999990405 0  1 0.4000599999989656 0  1 0.4250574999988908 0  1 0.4500549999988161 0  1 0.4750524999987414 0  1 0.5000499999986774 0  1 0.5250474999987413 0  1 0.5500449999987923 0  1 0.5750424999988476 0  1 0.600039999998916 0  1 0.6250374999990189 0  1 0.6500349999990656 0  1 0.6750324999991252 0  1 0.7000299999991978 0  1 0.7250274999992747 0  1 0.7500249999993387 0  1 0.7750224999994026 0  1 0.8000199999994796 0  1 0.8250174999995522 0  1 0.8500149999996119 0  1 0.8750124999996586 0  1 0.9000099999997615 0  1 0.9250074999998298 0  1 0.9500049999998852 0  1 0.975002499999936 0  0.9750000000000694 1 0  0.9500000000001387 1 0  0.9250000000002081 1 0  0.9000000000002774 1 0  0.8750000000003467 1 0  0.8500000000004161 1 0  0.8250000000004855 1 0  0.8000000000005548 1 0  0.7750000000006241 1 0  0.7500000000006934 1 0  0.7250000000007628 1 0  0.7000000000008322 1 0  0.6750000000009015 1 0  0.6500000000009709 1 0  0.6250000000010403 1 0  0.6000000000011096 1 0  0.5750000000011789 1 0  0.5500000000012482 1 0  0.5250000000013176 1 0  0.500000000001387 1 0  0.4750000000014563 1 0  0.4500000000015257 1 0  0.4250000000015951 1 0  0.4000000000016644 1 0  0.3750000000017337 1 0  0.3500000000018031 1 0  0.3250000000018725 1 0  0.3000000000019418 1 0  0.2750000000020112 1 0  0.2500000000020806 1 0  0.2250000000021499 1 0  0.2000000000022192 1 0  0.1750000000022885 1 0  0.1500000000023578 1 0  0.1250000000024272 1 0  0.1000000000024964 1 0  0.0750000000025659 1 0  0.05000000000263527 1 0  0.02500000000270453 1 0  2.752242878045763e-12 1 0  -0.02499999999729541 1 0  -0.04999999999736482 1 0  -0.07499999999743401 1 0  -0.09999999999750342 1 0  -0.1249999999975728 1 0  -0.149999999997642 1 0  -0.1749999999977114 1 0  -0.1999999999977808 1 0  -0.22499999999785 1 0  -0.2499999999979194 1 0  -0.2749999999979889 1 0  -0.2999999999980583 1 0  -0.3249999999981275 1 0  -0.3499999999981969 1 0  -0.3749999999982663 1 0  -0.3999999999983355 1 0  -0.4249999999984049 1 0  -0.4499999999984743 1 0  -0.4749999999985435 1 0  -0.4999999999986129 1 0  -0.5249999999986823 1 0  -0.5499999999987515 1 0  -0.5749999999988211 1 0  -0.5999999999988903 1 0  -0.6249999999989597 1 0  -0.6499999999990291 1 0  -0.6749999999990988 1 0  -0.699999999999168 1 0  -0.7249999999992371 1 0  -0.7499999999993066 1 0  -0.7749999999993757 1 0  -0.7999999999994454 1 0  -0.8249999999995148 1 0  -0.849999999999584 1 0  -0.8749999999996532 1 0  -0.8999999999997226 1 0  -0.9249999999997918 1 0  -0.9499999999998614 1 0  -0.9749999999999308 1 0  -1 0.9750000000000694 0  -1 0.9500000000001387 0  -1 0.9250000000002081 0  -1 0.9000000000002774 0  -1 0.8750000000003467 0  -1 0.8500000000004161 0  -1 0.8250000000004855 0  -1 0.8000000000005548 0  -1 0.7750000000006241 0  -1 0.7500000000006934 0  -1 0.7250000000007628 0  -1 0.7000000000008322 0  -1 0.6750000000009015 0  -1 0.6500000000009709 0  -1 0.6250000000010403 0  -1 
[...]
<PointData  Scalars="f_8"> 
<DataArray  type="Float64"  Name="f_8"  format="ascii">0.0000000000000000e+00  0.0000000000000000e+00  0.0000000000000000e+00  0.0000000000000000e+00  0.0000000000000000e+00  0.0000000000000000e+00  0.0000000000000000e+00  0.0000000000000000e+00  0.0000000000000000e+00  0.0000000000000000e+00  0.0000000000000000e+00  0.0000000000000000e+00  0.0000000000000000e+00  0.0000000000000000e+00  0.0000000000000000e+00  0.0000000000000000e+00  0.0000000000000000e+00  0.0000000000000000e+00  0.0000000000000000e+00  0.0000000000000000e+00  0.0000000000000000e+00  0.0000000000000000e+00  0.0000000000000000e+00  0.0000000000000000e+00  0.0000000000000000e+00  0.0000000000000000e+00  0.0000000000000000e+00  0.0000000000000000e+00  0.0000000000000000e+00  0.0000000000000000e+00  0.0000000000000000e+00  0.0000000000000000e+00  0.0000000000000000e+00  0.0000000000000000e+00  0.0000000000000000e+00  0.0000000000000000e+00  0.0000000000000000e+00  0.0000000000000000e+00  0.0000000000000000e+00  0.0000000000000000e+00  0.0000000000000000e+00  0.0000000000000000e+00  0.0000000000000000e+00  0.0000000000000000e+00  0.0000000000000000e+00  0.0000000000000000e+00  0.0000000000000000e+00  0.0000000000000000e+00  0.0000000000000000e+00  0.0000000000000000e+00  0.0000000000000000e+00  0.0000000000000000e+00  0.0000000000000000e+00  0.0000000000000000e+00  0.0000000000000000e+00  0.0000000000000000e+00  0.0000000000000000e+00  0.0000000000000000e+00  0.0000000000000000e+00  0.0000000000000000e+00  0.0000000000000000e+00  0.0000000000000000e+00  0.0000000000000000e+00  0.0000000000000000e+00  0.0000000000000000e+00  0.0000000000000000e+00  0.0000000000000000e+00  0.0000000000000000e+00  0.0000000000000000e+00  0.0000000000000000e+00  0.0000000000000000e+00  0.0000000000000000e+00  0.0000000000000000e+00  0.0000000000000000e+00  0.0000000000000000e+00  0.0000000000000000e+00  0.0000000000000000e+00  0.0000000000000000e+00  0.0000000000000000e+00  0.0000000000000000e+00  0.0000000000000000e+00  0.0000000000000000e+00  0.0000000000000000e+00  0.0000000000000000e+00  0.0000000000000000e+00  0.0000000000000000e+00  0.0000000000000000e+00  0.0000000000000000e+00  0.0000000000000000e+00  0.0000000000000000e+00  0.0000000000000000e+00  0.0000000000000000e+00  0.0000000000000000e+00  0.0000000000000000e+00  0.0000000000000000e+00  0.0000000000000000e+00  0.0000000000000000e+00  0.0000000000000000e+00  0.0000000000000000e+00  0.0000000000000000e+00  0.0000000000000000e+00  0.0000000000000000e+00  0.0000000000000000e+00  0.0000000000000000e+00  0.0000000000000000e+00  0.0000000000000000e+00  0.0000000000000000e+00  0.0000000000000000e+00  0.0000000000000000e+00  0.0000000000000000e+00  0.0000000000000000e+00  0.0000000000000000e+00  0.0000000000000000e+00  0.0000000000000000e+00  0.0000000000000000e+00  0.0000000000000000e+00  0.0000000000000000e+00  0.0000000000000000e+00  0.0000000000000000e+00  0.0000000000000000e+00  0.0000000000000000e+00  0.0000000000000000e+00  0.0000000000000000e+00  0.0000000000000000e+00  0.0000000000000000e+00  0.0000000000000000e+00  0.0000000000000000e+00  0.0000000000000000e+00  0.0000000000000000e+00  0.0000000000000000e+00  0.0000000000000000e+00  0.0000000000000000e+00  0.0000000000000000e+00  0.0000000000000000e+00  0.0000000000000000e+00  0.0000000000000000e+00  0.0000000000000000e+00  0.0000000000000000e+00  0.0000000000000000e+00  0.0000000000000000e+00  0.0000000000000000e+00  0.0000000000000000e+00  0.0000000000000000e+00  0.0000000000000000e+00  0.0000000000000000e+00  0.0000000000000000e+00  0.0000000000000000e+00  0.0000000000000000e+00  0.0000000000000000e+00  0.0000000000000000e+00  0.0000000000000000e+00  0.0000000000000000e+00  0.0000000000000000e+00  0.0000000000000000e+00  0.0000000000000000e+00  0.0000000000000000e+00  0.0000000000000000e+00  0.0000000000000000e+00  0.0000000000000000e+00  0.0000000000000000e+00  0.0000000000000000e+00  0.0000000000000000e+00  0.0000000000000000e+00  0.0000000000000000e+00  0.0000000000000000e+00  0.0000000000000000e+00  0.0000000000000000e+00  0.0000000000000000e+00  0.0000000000000000e+00  0.0000000000000000e+00  0.0000000000000000e+00  0.0000000000000000e+00  0.0000000000000000e+00  0.0000000000000000e+00  0.0000000000000000e+00  0.0000000000000000e+00  0.0000000000000000e+00  0.0000000000000000e+00  0.0000000000000000e+00  0.0000000000000000e+00  0.0000000000000000e+00  0.0000000000000000e+00  0.0000000000000000e+00  0.0000000000000000e+00  0.0000000000000000e+00  0.0000000000000000e+00  0.0000000000000000e+00  0.0000000000000000e+00  0.0000000000000000e+00  0.0000000000000000e+00  0.0000000000000000e+00  0.0000000000000000e+00  0.0000000000000000e+00  0.0000000000000000e+00  0.0000000000000000e+00  0.0000000000000000e+00  0.0000000000000000e+00  0.0000000000000000e+00  0.0000000000000000e+00  0.0000000000000000e+00  0.0000000000000000e+00  0.0000000000000000e+00  0.0000000000000000e+00  0.0000000000000000e+00  0.0000000000000000e+00  0.0000000000000000e+00  0.0000000000000000e+00  0.0000000000000000e+00  0.0000000000000000e+00  0.0000000000000000e+00  0.0000000000000000e+00  0.0000000000000000e+00  0.0000000000000000e+00  0.0000000000000000e+00  0.0000000000000000e+00  0.0000000000000000e+00  0.0000000000000000e+00  0.0000000000000000e+00  0.0000000000000000e+00  0.0000000000000000e+00  0.0000000000000000e+00  0.0000000000000000e+00  0.0000000000000000e+00  0.0000000000000000e+00  0.0000000000000000e+00  0.0000000000000000e+00  0.0000000000000000e+00  0.0000000000000000e+00  0.0000000000000000e+00  0.0000000000000000e+00  0.0000000000000000e+00  0.0000000000000000e+00  0.0000000000000000e+00  0.0000000000000000e+00  0.0000000000000000e+00  0.0000000000000000e+00  0.0000000000000000e+00  0.0000000000000000e+00  0.0000000000000000e+00  0.0000000000000000e+00  0.0000000000000000e+00  0.0000000000000000e+00  0.0000000000000000e+00  0.0000000000000000e+00  0.0000000000000000e+00  0.0000000000000000e+00  0.0000000000000000e+00  0.0000000000000000e+00  0.0000000000000000e+00  0.0000000000000000e+00  0.0000000000000000e+00  0.0000000000000000e+00  0.0000000000000000e+00  0.0000000000000000e+00  0.0000000000000000e+00  0.0000000000000000e+00  0.0000000000000000e+00  0.0000000000000000e+00  0.0000000000000000e+00  0.0000000000000000e+00  0.0000000000000000e+00  0.0000000000000000e+00  0.0000000000000000e+00  0.0000000000000000e+00  0.0000000000000000e+00  0.0000000000000000e+00  0.0000000000000000e+00  0.0000000000000000e+00  0.0000000000000000e+00  0.0000000000000000e+00  0.0000000000000000e+00  0.0000000000000000e+00  0.0000000000000000e+00  0.0000000000000000e+00  0.0000000000000000e+00  0.0000000000000000e+00  0.0000000000000000e+00  0.0000000000000000e+00  0.0000000000000000e+00  0.0000000000000000e+00  0.0000000000000000e+00  0.0000000000000000e+00  0.0000000000000000e+00  0.0000000000000000e+00  0.0000000000000000e+00  0.0000000000000000e+00  0.0000000000000000e+00  0.0000000000000000e+00  0.0000000000000000e+00  0.0000000000000000e+00  0.0000000000000000e+00  0.0000000000000000e+00  0.0000000000000000e+00  0.0000000000000000e+00  0.0000000000000000e+00  0.0000000000000000e+00  0.0000000000000000e+00  0.0000000000000000e+00  0.0000000000000000e+00  0.0000000000000000e+00  0.0000000000000000e+00  0.0000000000000000e+00  0.0000000000000000e+00  0.0000000000000000e+00  0.0000000000000000e+00  0.0000000000000000e+00  0.0000000000000000e+00  0.0000000000000000e+00  0.0000000000000000e+00  0.0000000000000000e+00  0.0000000000000000e+00  0.0000000000000000e+00  0.0000000000000000e+00  0.0000000000000000e+00  0.0000000000000000e+00  0.0000000000000000e+00  0.0000000000000000e+00  0.0000000000000000e+00  0.0000000000000000e+00  0.0000000000000000e+00  0.0000000000000000e+00  0.0000000000000000e+00  0.0000000000000000e+00  0.0000000000000000e+00  0.0000000000000000e+00  0.0000000000000000e+00  0.0000000000000000e+00  0.0000000000000000e+00  0.0000000000000000e+00  0.0000000000000000e+00  0.0000000000000000e+00  0.0000000000000000e+00  0.0000000000000000e+00  0.0000000000000000e+00  0.0000000000000000e+00  0.0000000000000000e+00  0.0000000000000000e+00  0.0000000000000000e+00  0.0000000000000000e+00  0.0000000000000000e+00  0.0000000000000000e+00  0.0000000000000000e+00  0.0000000000000000e+00  0.0000000000000000e+00  0.0000000000000000e+00  0.0000000000000000e+00  0.0000000000000000e+00  0.0000000000000000e+00  0.0000000000000000e+00  0.0000000000000000e+00  0.0000000000000000e+00  0.0000000000000000e+00  0.0000000000000000e+00  0.0000000000000000e+00  0.0000000000000000e+00  0.0000000000000000e+00  0.0000000000000000e+00  0.0000000000000000e+00  0.0000000000000000e+00  0.0000000000000000e+00  0.0000000000000000e+00  0.0000000000000000e+00  0.0000000000000000e+00  0.0000000000000000e+00  0.0000000000000000e+00  0.0000000000000000e+00  0.0000000000000000e+00  0.0000000000000000e+00  0.0000000000000000e+00  0.0000000000000000e+00  0.0000000000000000e+00  0.0000000000000000e+00  0.0000000000000000e+00  0.0000000000000000e+00  0.0000000000000000e+00  0.0000000000000000e+00  0.0000000000000000e+00  0.0000000000000000e+00  0.0000000000000000e+00  0.0000000000000000e+00  0.0000000000000000e+00  0.0000000000000000e+00  0.0000000000000000e+00  0.0000000000000000e+00  0.0000000000000000e+00  0.0000000000000000e+00  0.0000000000000000e+00  0.0000000000000000e+00  0.0000000000000000e+00  0.0000000000000000e+00  0.0000000000000000e+00  0.0000000000000000e+00  0.0000000000000000e+00  0.0000000000000000e+00  0.0000000000000000e+00  0.0000000000000000e+00  0.0000000000000000e+00  0.0000000000000000e+00  0.0000000000000000e+00  0.0000000000000000e+00  1.1271961400061533e-02  9.9334531057214022e-03  1.1347743518113814e-02  1.1337989393643265e-02  9.0635392109908574e-03  1.1298625638306586e-02  1.1143319184310751e-02  1.1291062906582147e-02  1.1099348524564090e-02  1.2099043079461505e-02  1.2114355085230503e-02  1.1992248879359568e-02  1.7388229952657562e-02  1.7388765548131613e-02  1.1965841287640061e-02  1.1965847405034032e-02  1.0366181476798665e-02  1.0366046557304118e-02  9.7132996372151816e-03  9.3218644201903539e-03  1.0891093317284696e-02  1.1182465956091960e-02  1.0192012822619292e-02  1.0192632868055525e-02  9.1789888260761249e-03  9.1820731297780362e-03  8.7353306626948447e-03  8.7507169769971971e-03  1.0449014424816990e-02  1.0325075539321929e-02  1.0436924561141760e-02  9.9085228951873213e-03  8.3430661786298189e-03  8.3335446496946436e-03  7.8245736446891073e-03  7.9859589024846855e-03  8.0433432146029635e-03  8.0432276850382067e-03  7.5453809095947138e-03  6.6456623049933779e-03  8.7284111271238585e-03  8.4704484254186189e-03  8.7814320047807839e-03  9.1052529099689226e-03  7.3249329250265512e-03  7.3170821688437150e-03  7.3891873935322096e-03  7.0549231202426147e-03  6.8432645530880267e-03  6.8451724943708013e-03  1.1832865473007426e-02  1.0946920537700374e-02  1.0337397414198313e-02  9.9410581501232359e-03  6.8013249043101234e-03  6.9243832460176135e-03  7.1399198692599763e-03  7.0105434431269138e-03  6.8084541190098135e-03  7.4057228934094870e-03  5.1923723342448651e-03  5.1899136816395946e-03  5.2526159659764069e-03  5.4839684682414418e-03  5.1315616692856241e-03  5.1314857818004515e-03  4.7578047809249107e-03  5.1192441307854660e-03  5.3757046714358681e-03  5.4657095134755251e-03  9.7706903080558641e-03  1.1044152543766974e-02  9.7733397125724271e-03  1.3535098704569957e-02  1.1044282736747214e-02  1.3533474992015192e-02  1.1817228826368072e-02  1.0968750508378960e-02  1.1284541867432836e-02  1.0510983320107272e-02  1.1225259995576680e-02  1.1341628722568994e-02  1.0717135516184070e-02  1.0813102525134012e-02  1.0504381300631176e-02  1.1003216487578743e-02  1.1152023971240361e-02  1.0882766411766550e-02  1.2256832657989910e-02  1.0818592604827365e-02  9.4982270462418833e-03  5.0757642958626781e-03  5.5600858786429589e-03  3.4353040390025531e-03  3.4374524878401729e-03  3.6227486892290591e-03  3.7039743631889447e-03  3.5483178648063733e-03  3.5453550464323710e-03  3.6379083026703988e-03  3.6474155713610481e-03  6.0915671084805943e-03  6.0921038188218677e-03  6.2963007761793512e-03  7.4870527963831575e-03  6.4186292156548268e-03  7.5532522331849903e-03  8.1387840233930059e-03  8.5335065381841341e-03  8.5335150596339143e-03  7.4871601069869849e-03  9.1537748912126383e-03  8.9299696471812056e-03  2.6902865970663804e-02  4.5018059736453779e-02  5.1211462884428086e-02  6.9489426785990682e-02  7.7320314385386071e-02  8.8669300649052610e-02  9.5458960901005405e-02  1.0380750798730046e-01  1.0954524003975560e-01  1.0380647004075648e-01  6.8603925764801815e-02  1.1613017274525134e-01  1.1227951308734664e-01  1.1613090374630083e-01  1.2284345575689917e-01  1.2025225334520261e-01  1.2927559378742196e-01  1.2750822085695876e-01  1.3522637011017127e-01  1.3399615613021912e-01  1.4060901975760889e-01  1.3972638106588484e-01  1.4539377761529085e-01  1.4641107594155681e-01  1.5036997739228383e-01  1.4957858677474176e-01  1.5382159984919849e-01  1.5142147300726549e-01  1.5317451613003452e-01  1.5676253663831460e-01  1.5619847276735108e-01  1.5919757883721847e-01  1.5866963474469958e-01  1.6113605236402032e-01  1.6060764798384006e-01  1.6258970164299988e-01  1.6203178364269916e-01  1.6008539168597455e-01  1.6357146354427210e-01  1.6412586538400925e-01  1.6468863271040646e-01  1.6520489792536727e-01  1.6537146654092813e-01  1.6409474822997971e-01  1.6581909892715874e-01  1.6561112217220492e-01  1.6596323574684033e-01  1.6540087694639216e-01  1.6563370806837743e-01  1.6473557424702537e-01  1.6482793698213458e-01  1.6361087950677919e-01  1.6351107534692083e-01  1.6354386451925473e-01  1.6208618758615068e-01  1.6196474824642923e-01  1.6025800341791979e-01  1.6010230432612274e-01  1.5813165764240458e-01  1.5793041449820369e-01  1.5571346656048071e-01  1.5545651880395281e-01  1.5301056802502408e-01  1.5268869482330963e-01  1.5003079760293825e-01  1.4963555938810913e-01  1.5307971652677477e-01  1.4678259508014771e-01  1.4630619617406673e-01  1.4896198735971233e-01  1.4553449737396143e-01  1.4800052787211346e-01  1.4445760846558400e-01  1.4674116846930005e-01  1.4183306117175559e-01  1.4063360505725939e-01  1.3786789693222112e-01  1.3653899448116205e-01  1.3364948175372532e-01  1.6477140915337318e-01  1.6331268483440997e-01  1.6456691186708811e-01  1.6291838229699465e-01  1.6421354908920521e-01  1.6236053411778495e-01  1.6370882764996025e-01  1.6163745587092768e-01  1.6304894255990310e-01  1.6074644781295658e-01  1.6222910131781268e-01  1.5968406620986797e-01  1.6124386435410179e-01  1.5844640206433699e-01  1.6008747968461284e-01  1.5702935164525247e-01  1.5875419353275544e-01  1.5659517251016197e-01  1.5542886591393371e-01  1.5723852368244412e-01  1.5364116939828576e-01  1.5553548775837520e-01  1.5885379878337286e-01  1.5723820797883348e-01  1.6027987542926381e-01  1.5875363079147856e-01  1.5542817133682307e-01  1.5702841783982965e-01  1.6008673705218140e-01  1.5844529925376241e-01  1.6124300858523660e-01  1.5968286550565541e-01  1.6222819827839588e-01  1.6074521810378817e-01  1.6304805654170521e-01  1.6163626443887924e-01  1.6370802110996405e-01  1.6235944689146414e-01  1.6421288197660536e-01  1.6291746128635573e-01  1.6456644109311422e-01  1.6331198886002019e-01  1.6477118897834966e-01  1.6354349446469529e-01  1.6482802496368734e-01  1.6361085073398668e-01  1.6473601678460384e-01  1.6351139255434946e-01  1.6449227975509054e-01  1.6324089087195262e-01  1.6409193357213961e-01  1.6279320830432761e-01  1.6352810771307436e-01  1.6216070110154332e-01  1.6279210124177798e-01  1.6114622582811630e-01  1.6133420959813194e-01  1.6187357195006749e-01  1.6030322208913775e-01  1.6076078491321616e-01  1.5905627506014319e-01  1.5944092069644578e-01  1.6177876961133603e-01  1.5758085603017172e-01  1.5790033366596040e-01  1.5586391984216885e-01  1.5612487046652704e-01  1.5532403434085956e-01  1.5793457120226273e-01  1.5612048844231505e-01  1.5769844806098932e-01  1.5586590808899731e-01  1.5720812183416583e-01  1.5537700639975505e-01  1.5648098408763880e-01  1.5467062090760322e-01  1.5553566724180620e-01  1.5376484833877890e-01  1.5439199444547580e-01  1.5267818357911217e-01  1.5307072484075110e-01  1.5142994236067570e-01  1.5159333963908481e-01  1.5003974799231570e-01  1.4998165456880694e-01  1.4852715004432276e-01  1.4825736816754709e-01  1.4691140128358537e-01  1.4644156426248359e-01  1.4521076363478011e-01  1.4455417577751173e-01  1.4344233156413227e-01  1.4261349092316328e-01  1.4162154956645595e-01  1.4063570060234803e-01  1.3976188041664916e-01  1.3863455038667277e-01  1.3787457783172041e-01  1.3662109564413535e-01  1.3596851608340810e-01  1.3460360943451283e-01  1.3405015458049155e-01  1.3258758462074680e-01  1.3212352608210118e-01  1.3057583294293434e-01  1.3019039450083969e-01  1.2856870032097215e-01  1.2825036673012311e-01  1.2656427708346224e-01  1.2630108704221041e-01  1.2455866588928392e-01  1.2433845402303033e-01  1.2254624284700778e-01  1.2235680370017843e-01  1.2051988878600971e-01  1.2034910150456235e-01  1.1847120711308251e-01  1.1830710926514348e-01  1.1639070104389639e-01  1.1622152000259946e-01  1.1426790888054694e-01  1.1408206183765558e-01  1.1209153078696227e-01  1.1187758681316687e-01  1.0984947624732726e-01  1.0959612165343741e-01  1.0752890321650521e-01  1.0722490042437471e-01  1.0511627948360749e-01  1.0475038225368216e-01  1.0259734307298410e-01  1.4528776111352695e-01  1.0215823864457138e-01  1.5410002241173132e-01  1.3676814390768527e-01  1.1771768651801118e-01  1.5175351932577569e-01  1.2752931185692717e-01  1.0650053988626165e-01  9.9957101593229861e-02  1.5790438532989837e-01  9.9433338826511633e-02  9.7179795585627796e-02  9.6559717219851918e-02  9.4248905269915320e-02  1.3218441917470686e-01  1.2918854545220010e-01  9.3520547334097898e-02  9.5536836470531766e-02  1.2758069213065631e-01  1.2449606967277281e-01  1.3035151942971132e-01  1.2586115862547101e-01  1.2108643315795871e-01  1.2219100795108143e-01  9.2395433875020763e-02  9.4128691466516506e-02  9.1146920572123605e-02  1.1734023453218548e-01  1.1610933742619907e-01  9.0891857405102833e-02  9.2353039277540364e-02  1.5588219673782833e-01  1.1816652056594208e-01  9.4562300472474159e-02  1.0505052173945051e-01  1.1612287881301343e-01  1.2435670454290688e-01  1.3478803773735812e-01  1.1230508434096687e-01  1.1094177604242368e-01  8.9028767987459567e-02  9.0227863979833386e-02  1.6452550681008452e-01  1.3338930112430977e-01  1.0709794181875500e-01  1.4934490745401682e-01  8.6825296789004913e-02  8.7771625355708247e-02  1.0559600659985370e-01  1.0173163130964752e-01  8.5488293721432143e-02  1.6524561977628055e-01  8.4300766397046409e-02  8.5003189418111497e-02  8.8308106858437291e-02  8.5284022061539635e-02  8.8416193527286496e-02  8.1941315551638097e-02  8.1973277867391559e-02  7.8605289373278028e-02  1.0008465266882377e-01  9.6219436413139667e-02  9.7536790212993538e-02  7.8394359425575391e-02  9.2030204082064929e-02  7.5015368421776210e-02  1.6348838389800407e-01  9.2997570104762423e-02  7.4566170361938189e-02  7.1191488241447748e-02  9.4420718072704982e-02  9.7963166181318881e-02  7.1395911028161382e-02  8.7502491931797918e-02  9.2126829574900551e-02  9.5354187180994546e-02  7.0507846962197696e-02  7.3634181043050057e-02  6.7154248460928337e-02  8.8099229353346020e-02  8.9324434586262089e-02  9.2245208279133600e-02  8.2620887847114993e-02  6.9324408900404602e-02  7.2200682048916692e-02  8.6000778790405311e-02  8.8624299394745490e-02  8.3138733728985975e-02  8.2826122926530202e-02  1.5998677135626443e-01  1.5155176652750438e-01  1.1228133866233203e-01  1.2284481686716026e-01  1.2025446678216284e-01  1.2927740484821224e-01  1.2751070116165197e-01  1.3522850922917340e-01  1.3399892788402937e-01  1.4061141813019121e-01  1.3972936249326792e-01  1.3339273258273895e-01  1.4196469883104951e-01  1.3930598379530054e-01  1.3335370246219894e-01  1.4641314550841503e-01  1.4777341816507583e-01  1.5341943341701988e-0